<?xml version="1.0"?>
<VTKFile type="UnstructuredGrid" version="0.1" byte_order="BigEndian">
<UnstructuredGrid>
    <Piece NumberOfPoints="501" NumberOfCells="501">
        <Points>
             <DataArray type="Float32" NumberOfComponents="3" Format="ascii">
                  0.5000E+00    0.5000E+00    0.5000E+00
                  0.5000E+00    0.5000E+00    0.1500E+01
                  0.5000E+00    0.5000E+00    0.2500E+01
                  0.5000E+00    0.5000E+00    0.3500E+01
                  0.5000E+00    0.5000E+00    0.4500E+01
                  0.5000E+00    0.1500E+01    0.5000E+00
                  0.5000E+00    0.1500E+01    0.1500E+01
                  0.5000E+00    0.1500E+01    0.2500E+01
                  0.5000E+00    0.1500E+01    0.3500E+01
                  0.5000E+00    0.1500E+01    0.4500E+01
                  0.5000E+00    0.2500E+01    0.5000E+00
                  0.5000E+00    0.2500E+01    0.1500E+01
                  0.5000E+00    0.2500E+01    0.2500E+01
                  0.5000E+00    0.2500E+01    0.3500E+01
                  0.5000E+00    0.2500E+01    0.4500E+01
                  0.5000E+00    0.3500E+01    0.5000E+00
                  0.5000E+00    0.3500E+01    0.1500E+01
                  0.5000E+00    0.3500E+01    0.2500E+01
                  0.5000E+00    0.3500E+01    0.3500E+01
                  0.5000E+00    0.3500E+01    0.4500E+01
                  0.5000E+00    0.4500E+01    0.5000E+00
                  0.5000E+00    0.4500E+01    0.1500E+01
                  0.5000E+00    0.4500E+01    0.2500E+01
                  0.5000E+00    0.4500E+01    0.3500E+01
                  0.5000E+00    0.4500E+01    0.4500E+01
                  0.5000E+00    0.5500E+01    0.5000E+00
                  0.5000E+00    0.5500E+01    0.1500E+01
                  0.5000E+00    0.5500E+01    0.2500E+01
                  0.5000E+00    0.5500E+01    0.3500E+01
                  0.5000E+00    0.5500E+01    0.4500E+01
                  0.5000E+00    0.6500E+01    0.5000E+00
                  0.5000E+00    0.6500E+01    0.1500E+01
                  0.5000E+00    0.6500E+01    0.2500E+01
                  0.5000E+00    0.6500E+01    0.3500E+01
                  0.5000E+00    0.6500E+01    0.4500E+01
                  0.5000E+00    0.7500E+01    0.5000E+00
                  0.5000E+00    0.7500E+01    0.1500E+01
                  0.5000E+00    0.7500E+01    0.2500E+01
                  0.5000E+00    0.7500E+01    0.3500E+01
                  0.5000E+00    0.7500E+01    0.4500E+01
                  0.5000E+00    0.8500E+01    0.5000E+00
                  0.5000E+00    0.8500E+01    0.1500E+01
                  0.5000E+00    0.8500E+01    0.2500E+01
                  0.5000E+00    0.8500E+01    0.3500E+01
                  0.5000E+00    0.8500E+01    0.4500E+01
                  0.5000E+00    0.9500E+01    0.5000E+00
                  0.5000E+00    0.9500E+01    0.1500E+01
                  0.5000E+00    0.9500E+01    0.2500E+01
                  0.5000E+00    0.9500E+01    0.3500E+01
                  0.5000E+00    0.9500E+01    0.4500E+01
                  0.1500E+01    0.5000E+00    0.5000E+00
                  0.1500E+01    0.5000E+00    0.1500E+01
                  0.1500E+01    0.5000E+00    0.2500E+01
                  0.1500E+01    0.5000E+00    0.3500E+01
                  0.1500E+01    0.5000E+00    0.4500E+01
                  0.1500E+01    0.1500E+01    0.5000E+00
                  0.1500E+01    0.1500E+01    0.1500E+01
                  0.1500E+01    0.1500E+01    0.2500E+01
                  0.1500E+01    0.1500E+01    0.3500E+01
                  0.1500E+01    0.1500E+01    0.4500E+01
                  0.1500E+01    0.2500E+01    0.5000E+00
                  0.1500E+01    0.2500E+01    0.1500E+01
                  0.1500E+01    0.2500E+01    0.2500E+01
                  0.1500E+01    0.2500E+01    0.3500E+01
                  0.1500E+01    0.2500E+01    0.4500E+01
                  0.1500E+01    0.3500E+01    0.5000E+00
                  0.1500E+01    0.3500E+01    0.1500E+01
                  0.1500E+01    0.3500E+01    0.2500E+01
                  0.1500E+01    0.3500E+01    0.3500E+01
                  0.1500E+01    0.3500E+01    0.4500E+01
                  0.1500E+01    0.4500E+01    0.5000E+00
                  0.1500E+01    0.4500E+01    0.1500E+01
                  0.1500E+01    0.4500E+01    0.2500E+01
                  0.1500E+01    0.4500E+01    0.3500E+01
                  0.1500E+01    0.4500E+01    0.4500E+01
                  0.1500E+01    0.5500E+01    0.5000E+00
                  0.1500E+01    0.5500E+01    0.1500E+01
                  0.1500E+01    0.5500E+01    0.2500E+01
                  0.1500E+01    0.5500E+01    0.3500E+01
                  0.1500E+01    0.5500E+01    0.4500E+01
                  0.1500E+01    0.6500E+01    0.5000E+00
                  0.1500E+01    0.6500E+01    0.1500E+01
                  0.1500E+01    0.6500E+01    0.2500E+01
                  0.1500E+01    0.6500E+01    0.3500E+01
                  0.1500E+01    0.6500E+01    0.4500E+01
                  0.1500E+01    0.7500E+01    0.5000E+00
                  0.1500E+01    0.7500E+01    0.1500E+01
                  0.1500E+01    0.7500E+01    0.2500E+01
                  0.1500E+01    0.7500E+01    0.3500E+01
                  0.1500E+01    0.7500E+01    0.4500E+01
                  0.1500E+01    0.8500E+01    0.5000E+00
                  0.1500E+01    0.8500E+01    0.1500E+01
                  0.1500E+01    0.8500E+01    0.2500E+01
                  0.1500E+01    0.8500E+01    0.3500E+01
                  0.1500E+01    0.8500E+01    0.4500E+01
                  0.1500E+01    0.9500E+01    0.5000E+00
                  0.1500E+01    0.9500E+01    0.1500E+01
                  0.1500E+01    0.9500E+01    0.2500E+01
                  0.1500E+01    0.9500E+01    0.3500E+01
                  0.1500E+01    0.9500E+01    0.4500E+01
                  0.2500E+01    0.5000E+00    0.5000E+00
                  0.2500E+01    0.5000E+00    0.1500E+01
                  0.2500E+01    0.5000E+00    0.2500E+01
                  0.2500E+01    0.5000E+00    0.3500E+01
                  0.2500E+01    0.5000E+00    0.4500E+01
                  0.2500E+01    0.1500E+01    0.5000E+00
                  0.2500E+01    0.1500E+01    0.1500E+01
                  0.2500E+01    0.1500E+01    0.2500E+01
                  0.2500E+01    0.1500E+01    0.3500E+01
                  0.2500E+01    0.1500E+01    0.4500E+01
                  0.2500E+01    0.2500E+01    0.5000E+00
                  0.2500E+01    0.2500E+01    0.1500E+01
                  0.2500E+01    0.2500E+01    0.2500E+01
                  0.2500E+01    0.2500E+01    0.3500E+01
                  0.2500E+01    0.2500E+01    0.4500E+01
                  0.2500E+01    0.3500E+01    0.5000E+00
                  0.2500E+01    0.3500E+01    0.1500E+01
                  0.2500E+01    0.3500E+01    0.2500E+01
                  0.2500E+01    0.3500E+01    0.3500E+01
                  0.2500E+01    0.3500E+01    0.4500E+01
                  0.2500E+01    0.4500E+01    0.5000E+00
                  0.2500E+01    0.4500E+01    0.1500E+01
                  0.2500E+01    0.4500E+01    0.2500E+01
                  0.2500E+01    0.4500E+01    0.3500E+01
                  0.2500E+01    0.4500E+01    0.4500E+01
                  0.2500E+01    0.5500E+01    0.5000E+00
                  0.2500E+01    0.5500E+01    0.1500E+01
                  0.2500E+01    0.5500E+01    0.2500E+01
                  0.2500E+01    0.5500E+01    0.3500E+01
                  0.2500E+01    0.5500E+01    0.4500E+01
                  0.2500E+01    0.6500E+01    0.5000E+00
                  0.2500E+01    0.6500E+01    0.1500E+01
                  0.2500E+01    0.6500E+01    0.2500E+01
                  0.2500E+01    0.6500E+01    0.3500E+01
                  0.2500E+01    0.6500E+01    0.4500E+01
                  0.2500E+01    0.7500E+01    0.5000E+00
                  0.2500E+01    0.7500E+01    0.1500E+01
                  0.2500E+01    0.7500E+01    0.2500E+01
                  0.2500E+01    0.7500E+01    0.3500E+01
                  0.2500E+01    0.7500E+01    0.4500E+01
                  0.2500E+01    0.8500E+01    0.5000E+00
                  0.2500E+01    0.8500E+01    0.1500E+01
                  0.2500E+01    0.8500E+01    0.2500E+01
                  0.2500E+01    0.8500E+01    0.3500E+01
                  0.2500E+01    0.8500E+01    0.4500E+01
                  0.2500E+01    0.9500E+01    0.5000E+00
                  0.2500E+01    0.9500E+01    0.1500E+01
                  0.2500E+01    0.9500E+01    0.2500E+01
                  0.2500E+01    0.9500E+01    0.3500E+01
                  0.2500E+01    0.9500E+01    0.4500E+01
                  0.3500E+01    0.5000E+00    0.5000E+00
                  0.3500E+01    0.5000E+00    0.1500E+01
                  0.3500E+01    0.5000E+00    0.2500E+01
                  0.3500E+01    0.5000E+00    0.3500E+01
                  0.3500E+01    0.5000E+00    0.4500E+01
                  0.3500E+01    0.1500E+01    0.5000E+00
                  0.3500E+01    0.1500E+01    0.1500E+01
                  0.3500E+01    0.1500E+01    0.2500E+01
                  0.3500E+01    0.1500E+01    0.3500E+01
                  0.3500E+01    0.1500E+01    0.4500E+01
                  0.3500E+01    0.2500E+01    0.5000E+00
                  0.3500E+01    0.2500E+01    0.1500E+01
                  0.3500E+01    0.2500E+01    0.2500E+01
                  0.3500E+01    0.2500E+01    0.3500E+01
                  0.3500E+01    0.2500E+01    0.4500E+01
                  0.3500E+01    0.3500E+01    0.5000E+00
                  0.3500E+01    0.3500E+01    0.1500E+01
                  0.3500E+01    0.3500E+01    0.2500E+01
                  0.3500E+01    0.3500E+01    0.3500E+01
                  0.3500E+01    0.3500E+01    0.4500E+01
[...]
        <PointData Scalars="scalars">
            <DataArray type="Float32" Name="seqv" Format="ascii">
                  0.1169E+02
                  0.2023E+02
                  0.2759E+02
                  0.3590E+02
                  0.4051E+02
                  0.1873E+02
                  0.3173E+02
                  0.4230E+02
                  0.5445E+02
                  0.6057E+02
                  0.2619E+02
                  0.4327E+02
                  0.5607E+02
                  0.7108E+02
                  0.7744E+02
                  0.3376E+02
                  0.5517E+02
                  0.7055E+02
                  0.8876E+02
                  0.9565E+02
                  0.3934E+02
                  0.6335E+02
                  0.7947E+02
                  0.9884E+02
                  0.1047E+03
                  0.3934E+02
                  0.6335E+02
                  0.7947E+02
                  0.9884E+02
                  0.1047E+03
                  0.3376E+02
                  0.5517E+02
                  0.7055E+02
                  0.8876E+02
                  0.9565E+02
                  0.2619E+02
                  0.4327E+02
                  0.5607E+02
                  0.7108E+02
                  0.7744E+02
                  0.1873E+02
                  0.3173E+02
                  0.4230E+02
                  0.5445E+02
                  0.6057E+02
                  0.1169E+02
                  0.2023E+02
                  0.2759E+02
                  0.3590E+02
                  0.4051E+02
                  0.1873E+02
                  0.3173E+02
                  0.4230E+02
                  0.5445E+02
                  0.6057E+02
                  0.2999E+02
                  0.4955E+02
                  0.6425E+02
                  0.8146E+02
                  0.8878E+02
                  0.4188E+02
                  0.6725E+02
                  0.8405E+02
                  0.1043E+03
                  0.1100E+03
                  0.5395E+02
                  0.8556E+02
                  0.1051E+03
                  0.1289E+03
                  0.1335E+03
                  0.6284E+02
                  0.9795E+02
                  0.1172E+03
                  0.1412E+03
                  0.1417E+03
                  0.6284E+02
                  0.9795E+02
                  0.1172E+03
                  0.1412E+03
                  0.1417E+03
                  0.5395E+02
                  0.8556E+02
                  0.1051E+03
                  0.1289E+03
                  0.1335E+03
                  0.4188E+02
                  0.6725E+02
                  0.8405E+02
                  0.1043E+03
                  0.1100E+03
                  0.2999E+02
                  0.4955E+02
                  0.6425E+02
                  0.8146E+02
                  0.8878E+02
                  0.1873E+02
                  0.3173E+02
                  0.4230E+02
                  0.5445E+02
                  0.6057E+02
                  0.2619E+02
                  0.4327E+02
                  0.5607E+02
                  0.7108E+02
                  0.7744E+02
                  0.4188E+02
                  0.6725E+02
                  0.8405E+02
                  0.1043E+03
                  0.1100E+03
                  0.5843E+02
                  0.9073E+02
                  0.1079E+03
                  0.1295E+03
                  0.1288E+03
                  0.7523E+02
                  0.1151E+03
                  0.1336E+03
                  0.1572E+03
                  0.1506E+03
                  0.8757E+02
                  0.1313E+03
                  0.1467E+03
                  0.1671E+03
                  0.1480E+03
                  0.8757E+02
                  0.1313E+03
                  0.1467E+03
                  0.1671E+03
                  0.1480E+03
                  0.7523E+02
                  0.1151E+03
                  0.1336E+03
                  0.1572E+03
                  0.1506E+03
                  0.5843E+02
                  0.9073E+02
                  0.1079E+03
                  0.1295E+03
                  0.1288E+03
                  0.4188E+02
                  0.6725E+02
                  0.8405E+02
                  0.1043E+03
                  0.1100E+03
                  0.2619E+02
                  0.4327E+02
                  0.5607E+02
                  0.7108E+02
                  0.7744E+02
                  0.3376E+02
                  0.5517E+02
                  0.7055E+02
                  0.8876E+02
                  0.9565E+02
                  0.5395E+02
                  0.8556E+02
                  0.1051E+03
                  0.1289E+03
                  0.1335E+03
                  0.7523E+02
                  0.1151E+03
                  0.1336E+03
                  0.1572E+03
                  0.1506E+03
                  0.9684E+02
                  0.1459E+03
                  0.1644E+03
                  0.1889E+03
                  0.1709E+03
                  0.1127E+03
                  0.1661E+03
                  0.1790E+03
                  0.1968E+03
                  0.1562E+03
                  0.1127E+03
                  0.1661E+03
                  0.1790E+03
                  0.1968E+03
                  0.1562E+03
                  0.9684E+02
                  0.1459E+03
                  0.1644E+03
                  0.1889E+03
                  0.1709E+03
                  0.7523E+02
                  0.1151E+03
                  0.1336E+03
                  0.1572E+03
                  0.1506E+03
                  0.5395E+02
                  0.8556E+02
                  0.1051E+03
                  0.1289E+03
                  0.1335E+03
                  0.3376E+02
                  0.5517E+02
                  0.7055E+02
                  0.8876E+02
                  0.9565E+02
                  0.3934E+02
                  0.6335E+02
                  0.7947E+02
                  0.9884E+02
                  0.1047E+03
                  0.6284E+02
                  0.9795E+02
                  0.1172E+03
                  0.1412E+03
                  0.1417E+03
                  0.8757E+02
                  0.1313E+03
                  0.1467E+03
                  0.1671E+03
                  0.1480E+03
                  0.1127E+03
                  0.1661E+03
                  0.1790E+03
                  0.1968E+03
                  0.1562E+03
                  0.1311E+03
                  0.1886E+03
                  0.1919E+03
                  0.1969E+03
                  0.1069E+03
                  0.1311E+03
                  0.1886E+03
                  0.1919E+03
                  0.1969E+03
                  0.1069E+03
                  0.1127E+03
                  0.1661E+03
                  0.1790E+03
                  0.1968E+03
                  0.1562E+03
                  0.8757E+02
                  0.1313E+03
                  0.1467E+03
                  0.1671E+03
                  0.1480E+03
                  0.6284E+02
                  0.9795E+02
                  0.1172E+03
                  0.1412E+03
                  0.1417E+03
                  0.3934E+02
                  0.6335E+02
                  0.7947E+02
                  0.9884E+02
                  0.1047E+03
                  0.3934E+02
                  0.6335E+02
                  0.7947E+02
                  0.9884E+02
                  0.1047E+03
                  0.6284E+02
                  0.9795E+02
                  0.1172E+03
                  0.1412E+03
                  0.1417E+03
                  0.8757E+02
                  0.1313E+03
                  0.1467E+03
                  0.1671E+03
                  0.1480E+03
                  0.1127E+03
                  0.1661E+03
                  0.1790E+03
                  0.1968E+03
                  0.1562E+03
                  0.1311E+03
                  0.1886E+03
                  0.1919E+03
                  0.1969E+03
                  0.1069E+03
                  0.1311E+03
                  0.1886E+03
                  0.1919E+03
                  0.1969E+03
                  0.1069E+03
                  0.1127E+03
                  0.1661E+03
                  0.1790E+03
                  0.1968E+03
                  0.1562E+03
                  0.8757E+02
                  0.1313E+03
                  0.1467E+03
                  0.1671E+03
                  0.1480E+03
                  0.6284E+02
                  0.9795E+02
                  0.1172E+03
                  0.1412E+03
                  0.1417E+03
                  0.3934E+02
                  0.6335E+02
                  0.7947E+02
                  0.9884E+02
                  0.1047E+03
                  0.3376E+02
                  0.5517E+02
                  0.7055E+02
                  0.8876E+02
                  0.9565E+02
                  0.5395E+02
                  0.8556E+02
                  0.1051E+03
                  0.1289E+03
                  0.1335E+03
                  0.7523E+02
                  0.1151E+03
                  0.1336E+03
                  0.1572E+03
                  0.1506E+03
                  0.9684E+02
                  0.1459E+03
                  0.1644E+03
                  0.1889E+03
                  0.1709E+03
                  0.1127E+03
                  0.1661E+03
                  0.1790E+03
                  0.1968E+03
                  0.1562E+03
                  0.1127E+03
                  0.1661E+03
                  0.1790E+03
                  0.1968E+03
                  0.1562E+03
                  0.9684E+02
                  0.1459E+03
                  0.1644E+03
                  0.1889E+03
                  0.1709E+03
                  0.7523E+02
                  0.1151E+03
                  0.1336E+03
                  0.1572E+03
                  0.1506E+03
                  0.5395E+02
                  0.8556E+02
                  0.1051E+03
                  0.1289E+03
                  0.1335E+03
                  0.3376E+02
                  0.5517E+02
                  0.7055E+02
                  0.8876E+02
                  0.9565E+02
                  0.2619E+02
                  0.4327E+02
                  0.5607E+02
                  0.7108E+02
                  0.7744E+02
                  0.4188E+02
                  0.6725E+02
                  0.8405E+02
                  0.1043E+03
                  0.1100E+03
                  0.5843E+02
                  0.9073E+02
                  0.1079E+03
                  0.1295E+03
                  0.1288E+03
                  0.7523E+02
                  0.1151E+03
                  0.1336E+03
                  0.1572E+03
                  0.1506E+03
                  0.8757E+02
                  0.1313E+03
                  0.1467E+03
                  0.1671E+03
                  0.1480E+03
                  0.8757E+02
                  0.1313E+03
                  0.1467E+03
                  0.1671E+03
                  0.1480E+03
                  0.7523E+02
                  0.1151E+03
                  0.1336E+03
                  0.1572E+03
                  0.1506E+03
                  0.5843E+02
                  0.9073E+02
                  0.1079E+03
                  0.1295E+03
                  0.1288E+03
                  0.4188E+02
                  0.6725E+02
                  0.8405E+02
                  0.1043E+03
                  0.1100E+03
                  0.2619E+02
                  0.4327E+02
                  0.5607E+02
                  0.7108E+02
                  0.7744E+02
                  0.1873E+02
                  0.3173E+02
                  0.4230E+02
                  0.5445E+02
                  0.6057E+02
                  0.2999E+02
                  0.4955E+02
                  0.6425E+02
                  0.8146E+02
                  0.8878E+02
                  0.4188E+02
                  0.6725E+02
                  0.8405E+02
                  0.1043E+03
                  0.1100E+03
                  0.5395E+02
                  0.8556E+02
                  0.1051E+03
                  0.1289E+03
                  0.1335E+03
                  0.6284E+02
                  0.9795E+02
                  0.1172E+03
                  0.1412E+03
                  0.1417E+03
                  0.6284E+02
                  0.9795E+02
                  0.1172E+03
                  0.1412E+03
                  0.1417E+03
                  0.5395E+02
                  0.8556E+02
                  0.1051E+03
                  0.1289E+03
                  0.1335E+03
                  0.4188E+02
                  0.6725E+02
                  0.8405E+02
                  0.1043E+03
                  0.1100E+03
                  0.2999E+02
                  0.4955E+02
                  0.6425E+02
                  0.8146E+02
                  0.8878E+02
                  0.1873E+02
                  0.3173E+02
                  0.4230E+02
                  0.5445E+02
                  0.6057E+02
                  0.1169E+02
                  0.2023E+02
                  0.2759E+02
                  0.3590E+02
                  0.4051E+02
                  0.1873E+02
                  0.3173E+02
                  0.4230E+02
                  0.5445E+02
                  0.6057E+02
                  0.2619E+02
                  0.4327E+02
                  0.5607E+02
                  0.7108E+02
                  0.7744E+02
                  0.3376E+02
                  0.5517E+02
                  0.7055E+02
                  0.8876E+02
                  0.9565E+02
                  0.3934E+02
                  0.6335E+02
                  0.7947E+02
                  0.9884E+02
                  0.1047E+03
                  0.3934E+02
                  0.6335E+02
                  0.7947E+02
                  0.9884E+02
                  0.1047E+03
                  0.3376E+02
                  0.5517E+02
                  0.7055E+02
                  0.8876E+02
                  0.9565E+02
                  0.2619E+02
                  0.4327E+02
                  0.5607E+02
                  0.7108E+02
                  0.7744E+02
                  0.1873E+02
                  0.3173E+02
                  0.4230E+02
                  0.5445E+02
                  0.6057E+02
                  0.1169E+02
                  0.2023E+02
                  0.2759E+02
                  0.3590E+02
                  0.4051E+02
                  0.7760E+02
            </DataArray>
            <DataArray type="Float32" Name="epeff" Format="ascii">
                  0.0000E+00
                  0.0000E+00
                  0.0000E+00
                  0.0000E+00
                  0.0000E+00
                  0.0000E+00
                  0.0000E+00
                  0.0000E+00
                  0.0000E+00
                  0.0000E+00
                  0.0000E+00
                  0.0000E+00
                  0.0000E+00
                  0.0000E+00
                  0.0000E+00
                  0.0000E+00
                  0.0000E+00
                  0.0000E+00
                  0.0000E+00
                  0.0000E+00
                  0.0000E+00
                  0.0000E+00
                  0.0000E+00
                  0.0000E+00
                  0.0000E+00
                  0.0000E+00
                  0.0000E+00
                  0.0000E+00
                  0.0000E+00
                  0.0000E+00
                  0.0000E+00
                  0.0000E+00
                  0.0000E+00
                  0.0000E+00
                  0.0000E+00
                  0.0000E+00
                  0.0000E+00
                  0.0000E+00
                  0.0000E+00
                  0.0000E+00
                  0.0000E+00
                  0.0000E+00
                  0.0000E+00
                  0.0000E+00
                  0.0000E+00
                  0.0000E+00
                  0.0000E+00
                  0.0000E+00
                  0.0000E+00
                  0.0000E+00
                  0.0000E+00
                  0.0000E+00
                  0.0000E+00
                  0.0000E+00
                  0.0000E+00
                  0.0000E+00
                  0.0000E+00
                  0.0000E+00
                  0.0000E+00
                  0.0000E+00
                  0.0000E+00
                  0.0000E+00
                  0.0000E+00
                  0.0000E+00
                  0.0000E+00
                  0.0000E+00
                  0.0000E+00
                  0.0000E+00
                  0.0000E+00
                  0.0000E+00
                  0.0000E+00
                  0.0000E+00
                  0.0000E+00
                  0.0000E+00
                  0.0000E+00
                  0.0000E+00
                  0.0000E+00
                  0.0000E+00
                  0.0000E+00
                  0.0000E+00
                  0.0000E+00
                  0.0000E+00
                  0.0000E+00
                  0.0000E+00
                  0.0000E+00
                  0.0000E+00
                  0.0000E+00
                  0.0000E+00
                  0.0000E+00
                  0.0000E+00
                  0.0000E+00
                  0.0000E+00
                  0.0000E+00
                  0.0000E+00
                  0.0000E+00
                  0.0000E+00
                  0.0000E+00
                  0.0000E+00
                  0.0000E+00
                  0.0000E+00
                  0.0000E+00
                  0.0000E+00
                  0.0000E+00
                  0.0000E+00
                  0.0000E+00
                  0.0000E+00
                  0.0000E+00
                  0.0000E+00
                  0.0000E+00
                  0.0000E+00
                  0.0000E+00
                  0.0000E+00
                  0.0000E+00
                  0.0000E+00
                  0.0000E+00
                  0.0000E+00
                  0.0000E+00
                  0.0000E+00
                  0.0000E+00
                  0.0000E+00
                  0.0000E+00
                  0.0000E+00
                  0.0000E+00
                  0.0000E+00
                  0.0000E+00
                  0.0000E+00
                  0.0000E+00
                  0.0000E+00
                  0.0000E+00
                  0.0000E+00
                  0.0000E+00
                  0.0000E+00
                  0.0000E+00
                  0.0000E+00
                  0.0000E+00
                  0.0000E+00
                  0.0000E+00
                  0.0000E+00
                  0.0000E+00
                  0.0000E+00
                  0.0000E+00
                  0.0000E+00
                  0.0000E+00
                  0.0000E+00
                  0.0000E+00
                  0.0000E+00
                  0.0000E+00
                  0.0000E+00
                  0.0000E+00
                  0.0000E+00
                  0.0000E+00
                  0.0000E+00
                  0.0000E+00
                  0.0000E+00
                  0.0000E+00
                  0.0000E+00
                  0.0000E+00
                  0.0000E+00
                  0.0000E+00
                  0.0000E+00
                  0.0000E+00
                  0.0000E+00
                  0.0000E+00
                  0.0000E+00
                  0.0000E+00
                  0.0000E+00
                  0.0000E+00
                  0.0000E+00
                  0.0000E+00
                  0.0000E+00
                  0.0000E+00
                  0.0000E+00
                  0.0000E+00
                  0.0000E+00
                  0.0000E+00
                  0.0000E+00
                  0.0000E+00
                  0.0000E+00
                  0.0000E+00
                  0.0000E+00
                  0.0000E+00