<?xml version="1.0"?>
<VTKFile type="UnstructuredGrid" version="0.1" byte_order="BigEndian">
<UnstructuredGrid>
   <Piece NumberOfPoints="5" NumberOfCells="4">
      <Points>
         <DataArray type="Float32" NumberOfComponents="3" Format="ascii">
         0.00000   0.00000   0.00000
         0.25000   0.04490   0.00000
         0.50000   0.17017   0.00000
         0.75000   0.35495   0.00000
         1.00000   0.57132   0.00000
         </DataArray>
      </Points>
      <PointData Scalars="Scalars">
          <DataArray type="Float32" Name="Disp" Format="ascii">
         0.00000
         0.04490
         0.17017
         0.35495
         0.57132
          </DataArray>
          <DataArray type="Float32" Name="MStress" Format="ascii">
         0.00000
         67665.10547
         989849.74482
         4867260.68805
         10526143.65754
          </DataArray>
      </PointData>
      <Cells>
         <DataArray type="Float32" Name="connectivity" Format="ascii">
         0.00000   1.00000
         1.00000   2.00000
         2.00000   3.00000
         3.00000   4.00000
         </DataArray>
         <DataArray type="Float32" Name="offsets" Format="ascii">
         2
         4
         6
         8
         </DataArray>
         <DataArray type="Float32" Name="types" Format="ascii">
         3
         3
         3
         3
         </DataArray>
      </Cells>
   </Piece>
</UnstructuredGrid>
</VTKFile>
