<?xml version="1.0"?>
<VTKFile type="UnstructuredGrid" version="0.1" byte_order="BigEndian">
<UnstructuredGrid>
   <Piece NumberOfPoints="5" NumberOfCells="4">
      <Points>
         <DataArray type="Float32" NumberOfComponents="3" Format="ascii">
         0.00000   -0.00000   0.00000
         0.25000   -0.00055   0.00000
         0.50000   -0.00209   0.00000
         0.75000   -0.00433   0.00000
         1.00000   -0.00693   0.00000
         </DataArray>
      </Points>
      <PointData Scalars="Scalars">
          <DataArray type="Float32" Name="Disp" Format="ascii">
         0.00000
         0.00055
         0.00209
         0.00433
         0.00693
          </DataArray>
          <DataArray type="Float32" Name="MStress" Format="ascii">
         0.00000
         10.23782
         148.67394
         724.39850
         1557.44831
          </DataArray>
      </PointData>
      <Cells>
         <DataArray type="Float32" Name="connectivity" Format="ascii">
         0.00000   1.00000
         1.00000   2.00000
         2.00000   3.00000
         3.00000   4.00000
         </DataArray>
         <DataArray type="Float32" Name="offsets" Format="ascii">
         2
         4
         6
         8
         </DataArray>
         <DataArray type="Float32" Name="types" Format="ascii">
         3
         3
         3
         3
         </DataArray>
      </Cells>
   </Piece>
</UnstructuredGrid>
</VTKFile>
